LAMMPS Description

65 atoms
552 bonds
0 angles
0 dihedrals
0 impropers

65 atom types
552 bond types

 0.0000 104.0000 xlo xhi
 0.0000 40.0000 ylo yhi
 0.0000 40.0000 zlo zhi

Masses

1 149.200000 # CG1
2 174.200000 # CG2
3  75.100000 # CG3
4 105.100000 # CG4
5 155.200000 # CG5
6 155.200000 # CG6
7 155.200000 # CG7
8 155.200000 # CG8
9 155.200000 # CG9
10 155.200000 # CG10
11  75.100000 # CG11
12 105.100000 # CG12
13 131.200000 # CG13
14 147.100000 # CG14
15  75.100000 # CG15
16 174.200000 # CG16
17 117.100000 # CG17
18 146.200000 # CG18
19 147.100000 # CG19
20 131.200000 # CG20
21 119.100000 # CG21
22 165.200000 # CG22
23 131.200000 # CG23
24 146.200000 # CG24
25 132.100000 # CG25
26 119.100000 # CG26
27  89.100000 # CG27
28 115.100000 # CG28
29 146.200000 # CG29
30 149.200000 # CG30
31 131.200000 # CG31
32 174.200000 # CG32
33 147.100000 # CG33
34 131.200000 # CG34
35 146.200000 # CG35
36 147.100000 # CG36
37 119.100000 # CG37
38 132.100000 # CG38
39  89.100000 # CG39
40  89.100000 # CG40
41 131.200000 # CG41
42 146.200000 # CG42
43 133.100000 # CG43
44 117.100000 # CG44
45 174.200000 # CG45
46 147.100000 # CG46
47 131.200000 # CG47
48 131.200000 # CG48
49 174.200000 # CG49
50 146.200000 # CG50
51 146.200000 # CG51
52 105.100000 # CG52
53 146.200000 # CG53
54 131.200000 # CG54
55 131.200000 # CG55
56 149.200000 # CG56
57 119.100000 # CG57
58 117.100000 # CG58
59 146.200000 # CG59
60 174.200000 # CG60
61 149.200000 # CG61
62  50.000000 # CG62
63  50.000000 # CG63
64  50.000000 # CG64
65  50.000000 # CG65

Atoms

1 1 1 0.000000 16.113 14.746  4.015
2 1 2 1.000000 14.933 15.386  7.625
3 1 3 0.000000 17.253 12.656  9.065
4 1 4 0.000000 20.183 13.306  6.635
5 1 5 0.500000 20.893 16.646  8.355
6 1 6 0.500000 21.393 14.676 11.645
7 1 7 0.500000 24.273 12.386 10.805
8 1 8 0.500000 26.253 14.876  8.765
9 1 9 0.500000 25.743 17.706 11.335
10 1 10 0.500000 26.063 15.526 14.505
11 1 11 0.000000 29.343 14.236 13.085
12 1 12 0.000000 30.283 17.826 12.105
13 1 13 0.000000 29.883 19.176 15.685
14 1 14 -1.000000 32.253 16.366 16.785
15 1 15 0.000000 34.543 17.046 13.725
16 1 16 1.000000 34.773 20.726 14.695
17 1 17 0.000000 35.923 19.616 18.175
18 1 18 1.000000 38.373 17.056 16.665
19 1 19 -1.000000 40.333 19.986 15.165
20 1 20 0.000000 40.453 21.466 18.735
21 1 21 0.000000 41.623 18.016 19.975
22 1 22 0.000000 44.343 17.916 17.245
23 1 23 0.000000 45.493 21.296 18.615
24 1 24 1.000000 45.533 19.896 22.195
25 1 25 0.000000 47.493 16.916 20.795
26 1 26 0.000000 50.093 19.026 18.885
27 1 27 0.000000 50.513 21.726 21.575
28 1 28 0.000000 51.813 19.446 24.465
29 1 29 0.000000 54.053 17.646 21.915
30 1 30 0.000000 55.533 21.066 21.035
31 1 31 0.000000 56.003 21.696 24.765
32 1 32 1.000000 57.933 18.376 25.065
33 1 33 -1.000000 60.223 19.316 22.165
34 1 34 0.000000 60.763 22.716 23.875
35 1 35 0.000000 61.453 21.016 27.275
36 1 36 -1.000000 64.033 18.596 25.825
37 1 37 0.000000 65.433 21.426 23.585
38 1 38 0.000000 65.763 23.566 26.755
39 1 39 0.000000 67.593 20.656 28.465
40 1 40 0.000000 69.823 20.176 25.375
41 1 41 0.000000 70.713 23.896 25.295
42 1 42 0.000000 71.363 23.836 29.095
43 1 43 -1.000000 73.843 20.986 28.505
44 1 44 0.000000 75.343 22.926 25.495
45 1 45 1.000000 75.793 26.036 27.695
46 1 46 -1.000000 77.453 23.856 30.365
47 1 47 0.000000 79.643 21.996 27.805
48 1 48 0.000000 80.823 25.296 26.255
49 1 49 1.000000 81.773 26.536 29.775
50 1 50 0.000000 83.743 23.286 30.345
51 1 51 0.000000 85.303 23.146 26.845
52 1 52 0.000000 86.623 26.726 27.045
53 1 53 1.000000 89.143 26.886 29.935
54 1 54 0.000000 92.103 29.306 30.175
55 1 55 0.000000 45.183 22.756 13.425
56 1 56 0.000000 55.963 20.746 15.815
57 1 57 0.000000 65.803 19.696 18.385
58 1 58 0.000000 75.723 19.386 21.035
59 1 59 0.000000 87.033 20.596 21.845
60 1 60 0.000000 20.653 18.686 14.055
61 1 61 0.000000 23.213 21.546 13.405
62 1 62 0.000000 50.912 24.325 20.617
63 1 63 0.000000 60.999 24.582 22.256
64 1 64 0.000000 70.640 24.998 23.080
65 1 65 0.000000 80.724 25.261 23.514

Bonds

1 1 1 2
2 2 1 3
3 3 1 4
4 4 1 5
5 5 1 6
6 6 1 7
7 7 1 8
8 8 1 9
9 9 1 10
10 10 1 60
11 11 1 61
12 12 2 3
13 13 2 4
14 14 2 5
15 15 2 6
16 16 2 7
17 17 2 8
18 18 2 9
19 19 2 10
20 20 2 11
21 21 2 60
22 22 2 61
23 23 3 4
24 24 3 5
25 25 3 6
26 26 3 7
27 27 3 8
28 28 3 9
29 29 3 10
30 30 3 11
31 31 3 12
32 32 3 60
33 33 3 61
34 34 4 5
35 35 4 6
36 36 4 7
37 37 4 8
38 38 4 9
39 39 4 10
40 40 4 11
41 41 4 12
42 42 4 13
43 43 4 60
44 44 4 61
45 45 5 6
46 46 5 7
47 47 5 8
48 48 5 9
49 49 5 10
50 50 5 11
51 51 5 12
52 52 5 13
53 53 5 14
54 54 5 60
55 55 5 61
56 56 6 7
57 57 6 8
58 58 6 9
59 59 6 10
60 60 6 11
61 61 6 12
62 62 6 13
63 63 6 14
64 64 6 15
65 65 6 60
66 66 6 61
67 67 7 8
68 68 7 9
69 69 7 10
70 70 7 11
71 71 7 12
72 72 7 13
73 73 7 14
74 74 7 15
75 75 7 16
76 76 8 9
77 77 8 10
78 78 8 11
79 79 8 12
80 80 8 13
81 81 8 14
82 82 8 15
83 83 8 16
84 84 8 17
85 85 9 10
86 86 9 11
87 87 9 12
88 88 9 13
89 89 9 14
90 90 9 15
91 91 9 16
92 92 9 17
93 93 9 18
94 94 10 11
95 95 10 12
96 96 10 13
97 97 10 14
98 98 10 15
99 99 10 16
100 100 10 17
101 101 10 18
102 102 10 19
103 103 11 12
104 104 11 13
105 105 11 14
106 106 11 15
107 107 11 16
108 108 11 17
109 109 11 18
110 110 11 19
111 111 11 20
112 112 12 13
113 113 12 14
114 114 12 15
115 115 12 16
116 116 12 17
117 117 12 18
118 118 12 19
119 119 12 20
120 120 12 21
121 121 13 14
122 122 13 15
123 123 13 16
124 124 13 17
125 125 13 18
126 126 13 19
127 127 13 20
128 128 13 21
129 129 14 15
130 130 14 16
131 131 14 17
132 132 14 18
133 133 14 19
134 134 14 20
135 135 14 21
136 136 15 16
137 137 15 17
138 138 15 18
139 139 15 19
140 140 15 20
141 141 15 21
142 142 15 55
143 143 16 17
144 144 16 18
145 145 16 19
146 146 16 20
147 147 16 21
148 148 16 55
149 149 17 18
150 150 17 19
151 151 17 20
152 152 17 21
153 153 17 55
154 154 18 19
155 155 18 20
156 156 18 21
157 157 18 22
158 158 18 23
159 159 18 24
160 160 18 25
161 161 18 26
162 162 18 27
163 163 18 55
164 164 19 20
165 165 19 21
166 166 19 22
167 167 19 23
168 168 19 24
169 169 19 25
170 170 19 26
171 171 19 27
172 172 19 55
173 173 20 21
174 174 20 22
175 175 20 23
176 176 20 24
177 177 20 25
178 178 20 26
179 179 20 27
180 180 20 28
181 181 20 29
182 182 20 55
183 183 21 22
184 184 21 23
185 185 21 24
186 186 21 25
187 187 21 26
188 188 21 27
189 189 21 28
190 190 21 29
191 191 21 30
192 192 21 55
193 193 22 23
194 194 22 24
195 195 22 25
196 196 22 26
197 197 22 27
198 198 22 28
199 199 22 29
200 200 22 30
201 201 22 31
202 202 22 55
203 203 22 56
204 204 23 24
205 205 23 25
206 206 23 26
207 207 23 27
208 208 23 28
209 209 23 29
210 210 23 30
211 211 23 31
212 212 23 32
213 213 23 55
214 214 23 56
215 215 24 25
216 216 24 26
217 217 24 27
218 218 24 28
219 219 24 29
220 220 24 30
221 221 24 31
222 222 24 32
223 223 24 55
224 224 24 56
225 225 25 26
226 226 25 27
227 227 25 28
228 228 25 29
229 229 25 30
230 230 25 31
231 231 25 32
232 232 25 33
233 233 25 55
234 234 25 56
235 235 26 27
236 236 26 28
237 237 26 29
238 238 26 30
239 239 26 31
240 240 26 32
241 241 26 33
242 242 26 34
243 243 26 35
244 244 26 55
245 245 26 56
246 246 27 28
247 247 27 29
248 248 27 30
249 249 27 31
250 250 27 32
251 251 27 33
252 252 27 34
253 253 27 35
254 254 27 36
255 255 27 55
256 256 27 56
257 257 28 29
258 258 28 30
259 259 28 31
260 260 28 32
261 261 28 33
262 262 28 34
263 263 28 35
264 264 28 36
265 265 28 37
266 266 28 38
267 267 28 55
268 268 28 56
269 269 28 57
270 270 29 30
271 271 29 31
272 272 29 32
273 273 29 33
274 274 29 34
275 275 29 35
276 276 29 36
277 277 29 37
278 278 29 38
279 279 29 55
280 280 29 56
281 281 29 57
282 282 30 31
283 283 30 32
284 284 30 33
285 285 30 34
286 286 30 35
287 287 30 36
288 288 30 37
289 289 30 38
290 290 30 39
291 291 30 55
292 292 30 56
293 293 30 57
294 294 31 32
295 295 31 33
296 296 31 34
297 297 31 35
298 298 31 36
299 299 31 37
300 300 31 38
301 301 31 39
302 302 31 40
303 303 31 56
304 304 31 57
305 305 32 33
306 306 32 34
307 307 32 35
308 308 32 36
309 309 32 37
310 310 32 38
311 311 32 39
312 312 32 40
313 313 32 41
314 314 32 56
315 315 32 57
316 316 33 34
317 317 33 35
318 318 33 36
319 319 33 37
320 320 33 38
321 321 33 39
322 322 33 40
323 323 33 41
324 324 33 42
325 325 33 56
326 326 33 57
327 327 34 35
328 328 34 36
329 329 34 37
330 330 34 38
331 331 34 39
332 332 34 40
333 333 34 41
334 334 34 42
335 335 34 43
336 336 34 56
337 337 34 57
338 338 35 36
339 339 35 37
340 340 35 38
341 341 35 39
342 342 35 40
343 343 35 41
344 344 35 42
345 345 35 43
346 346 35 44
347 347 35 56
348 348 35 57
349 349 36 37
350 350 36 38
351 351 36 39
352 352 36 40
353 353 36 41
354 354 36 42
355 355 36 43
356 356 36 44
357 357 36 45
358 358 36 56
359 359 36 57
360 360 36 58
361 361 37 38
362 362 37 39
363 363 37 40
364 364 37 41
365 365 37 42
366 366 37 43
367 367 37 44
368 368 37 45
369 369 37 46
370 370 37 56
371 371 37 57
372 372 37 58
373 373 38 39
374 374 38 40
375 375 38 41
376 376 38 42
377 377 38 43
378 378 38 44
379 379 38 45
380 380 38 46
381 381 38 47
382 382 38 57
383 383 38 58
384 384 39 40
385 385 39 41
386 386 39 42
387 387 39 43
388 388 39 44
389 389 39 45
390 390 39 46
391 391 39 47
392 392 39 48
393 393 39 57
394 394 39 58
395 395 40 41
396 396 40 42
397 397 40 43
398 398 40 44
399 399 40 45
400 400 40 46
401 401 40 47
402 402 40 48
403 403 40 49
404 404 40 57
405 405 40 58
406 406 41 42
407 407 41 43
408 408 41 44
409 409 41 45
410 410 41 46
411 411 41 47
412 412 41 48
413 413 41 49
414 414 41 50
415 415 41 57
416 416 41 58
417 417 42 43
418 418 42 44
419 419 42 45
420 420 42 46
421 421 42 47
422 422 42 48
423 423 42 49
424 424 42 50
425 425 42 51
426 426 42 57
427 427 42 58
428 428 43 44
429 429 43 45
430 430 43 46
431 431 43 47
432 432 43 48
433 433 43 49
434 434 43 50
435 435 43 51
436 436 43 52
437 437 43 57
438 438 43 58
439 439 43 59
440 440 44 45
441 441 44 46
442 442 44 47
443 443 44 48
444 444 44 49
445 445 44 50
446 446 44 51
447 447 44 52
448 448 44 53
449 449 44 57
450 450 44 58
451 451 44 59
452 452 45 46
453 453 45 47
454 454 45 48
455 455 45 49
456 456 45 50
457 457 45 51
458 458 45 52
459 459 45 53
460 460 45 54
461 461 45 58
462 462 45 59
463 463 46 47
464 464 46 48
465 465 46 49
466 466 46 50
467 467 46 51
468 468 46 52
469 469 46 53
470 470 46 54
471 471 46 58
472 472 46 59
473 473 47 48
474 474 47 49
475 475 47 50
476 476 47 51
477 477 47 52
478 478 47 53
479 479 47 54
480 480 47 58
481 481 47 59
482 482 48 49
483 483 48 50
484 484 48 51
485 485 48 52
486 486 48 53
487 487 48 54
488 488 48 58
489 489 48 59
490 490 49 50
491 491 49 51
492 492 49 52
493 493 49 53
494 494 49 54
495 495 49 58
496 496 49 59
497 497 50 51
498 498 50 52
499 499 50 53
500 500 50 54
501 501 50 58
502 502 50 59
503 503 51 52
504 504 51 53
505 505 51 54
506 506 51 58
507 507 51 59
508 508 52 53
509 509 52 54
510 510 52 59
511 511 53 54
512 512 53 59
513 513 54 59
514 514 55 56
515 515 56 57
516 516 57 58
517 517 58 59
518 518 28 62
519 519 29 62
520 520 29 63
521 521 30 62
522 522 30 63
523 523 31 62
524 524 31 63
525 525 32 63
526 526 33 63
527 527 34 63
528 528 35 63
529 529 36 63
530 530 36 64
531 531 37 63
532 532 37 64
533 533 38 63
534 534 38 64
535 535 39 63
536 536 39 64
537 537 40 64
538 538 41 64
539 539 42 64
540 540 43 64
541 541 43 65
542 542 44 64
543 543 44 65
544 544 45 64
545 545 45 65
546 546 46 65
547 547 47 65
548 548 48 65
549 549 49 65
550 550 50 65
551 551 51 65
552 552 52 65
